<?xml version="1.0"?>
<VTKFile type="RectilinearGrid" version="0.1" byte_order="LittleEndian">
  <RectilinearGrid WholeExtent="0 2 0 2 0 2">
  <Piece Extent="0 2 0 2 0 2">
    <PointData>
    </PointData>
    <CellData>
          <DataArray type="Float32" Name="Velocity" NumberOfComponents="3" format="ascii" RangeMin="0" RangeMax="2">
            1 0 0
            2 0 0
            0 1 0
            0 2 0
            1 0 1
            2 0 1
            0 1 1
            0 2 1
          </DataArray>
        <DataArray type="Float32" Name="Temperature" NumberOfComponents="1" format="ascii" RangeMin="1" RangeMax="8">
          1
          2
          3
          4
          5
          6
          7
          8
        </DataArray>
    </CellData>
    <Coordinates>
    <DataArray type="Float32" Name="x" NumberOfComponents="1" format="ascii">
    0 1 2
    </DataArray>
    <DataArray type="Float32" Name="y" NumberOfComponents="1" format="ascii">
    0 1 2
    </DataArray>
    <DataArray type="Float32" Name="z" NumberOfComponents="1" format="ascii">
    0 1 2
    </DataArray>
    </Coordinates>
  </Piece>
  </RectilinearGrid>
</VTKFile>