<?xml version="1.0"?>
<VTKFile type="UnstructuredGrid" version="0.1" byte_order="LittleEndian">
  <UnstructuredGrid>
  <Piece NumberOfPoints="8" NumberOfCells="1">
    <PointData>
    </PointData>
    <CellData>
          <DataArray type="Float32" Name="Velocity" NumberOfComponents="3" format="ascii" RangeMin="0" RangeMax="1">
            0 0 1
          </DataArray>
        <DataArray type="Float32" Name="Temperature" NumberOfComponents="1" format="ascii" RangeMin="0" RangeMax="1">
          1
        </DataArray>
    </CellData>
    <Points>
      <DataArray type="Float32" Name="Points" NumberOfComponents="3" format="ascii" RangeMin="0" RangeMax="3">
        0 0 0
        1 0 0
        0 1 0
        1 1 0
        0 0 1
        1 0 1
        0 1 1
        1 1 1
      </DataArray>
    </Points>
    <Cells>
      <DataArray type="Int32" Name="connectivity" format="ascii">
      0 1 2 3 4 5 6 7 8
      </DataArray>
      <DataArray type="Int32" Name="offsets" format="ascii">
      8
      </DataArray>
      <DataArray type="Int32" Name="types" format="ascii">
      42
      </DataArray>
      <DataArray type="Int32" Name="faces" format="ascii">
      12
      3 0 1 2
      3 0 1 4
      3 0 2 6
      3 0 4 6
      3 1 3 5
      3 1 2 3
      3 1 4 5
      3 2 3 6
      3 3 5 7
      3 3 6 7
      3 4 5 6
      3 5 6 7
      </DataArray>
      <DataArray type="Int32" Name="faceoffsets" format="ascii">
      49
      </DataArray>
    </Cells>
  </Piece>
  </UnstructuredGrid>
</VTKFile>