<?xml version="1.0"?>
<VTKFile type="StructuredGrid" version="0.1" byte_order="LittleEndian">
  <StructuredGrid WholeExtent="0 2 0 2 0 2">
  <Piece Extent="0 2 0 2 0 2">
    <PointData>
    </PointData>
    <CellData>
          <DataArray type="Float32" Name="Velocity" NumberOfComponents="3" format="ascii" RangeMin="0" RangeMax="2">
            1 0 0
            2 0 0
            0 1 0
            0 2 0
            1 0 1
            2 0 1
            0 1 1
            0 2 1
          </DataArray>
        <DataArray type="Float32" Name="Temperature" NumberOfComponents="1" format="ascii" RangeMin="1" RangeMax="8">
          1
          2
          3
          4
          5
          6
          7
          8
        </DataArray>
    </CellData>
    <Points>
      <DataArray type="Float32" Name="Points" NumberOfComponents="3" format="ascii">
        0 0 0
        1 0 0
        2 0 0
        0 1 0
        1 1 0
        2 1 0
        0 2 0
        1 2 0
        2 2 0
        0 0 1
        1 0 1
        2 0 1
        0 1 1
        1 1 1
        2 1 1
        0 2 1
        1 2 1
        2 2 1
        0 0 2
        1 0 2
        2 0 2
        0 1 2
        1 1 2
        2 1 2
        0 2 2
        1 2 2
        2 2 2
      </DataArray>
    </Points>
  </Piece>
  </StructuredGrid>
</VTKFile>